LAMMPS Description


     2092  atoms
     7489  bonds
     0  angles
     0  dihedrals
     0  impropers


     1 atom types
     1 bond types


  -1 40 xlo xhi
  -1 40 ylo yhi
  -1 40 zlo zhi

Atoms 

0 1 1 1.0 0 0 0
1 1 1 1.0 5.431 0 0
2 1 1 1.0 0 5.431 0
3 1 1 1.0 0 0 5.431
4 1 1 1.0 5.431 5.431 0
5 1 1 1.0 5.431 0 5.431
6 1 1 1.0 0 5.431 5.431
7 1 1 1.0 5.431 5.431 5.431
8 1 1 1.0 2.7155 2.7155 0
9 1 1 1.0 5.431 2.7155 2.7155
10 1 1 1.0 2.7155 0 2.7155
11 1 1 1.0 2.7155 5.431 2.7155
12 1 1 1.0 0 2.7155 2.7155
13 1 1 1.0 2.7155 2.7155 5.431
14 1 1 1.0 1.3578 1.3578 1.3578
15 1 1 1.0 4.0732 4.0732 1.3578
16 1 1 1.0 4.0732 1.3578 4.0732
17 1 1 1.0 1.3578 4.0732 4.0732
18 1 1 1.0 0 0 10.862
19 1 1 1.0 5.431 0 10.862
20 1 1 1.0 0 5.431 10.862
21 1 1 1.0 5.431 5.431 10.862
22 1 1 1.0 5.431 2.7155 8.1465
23 1 1 1.0 2.7155 0 8.1465
24 1 1 1.0 2.7155 5.431 8.1465
25 1 1 1.0 0 2.7155 8.1465
26 1 1 1.0 2.7155 2.7155 10.862
27 1 1 1.0 1.3578 1.3578 6.7888
28 1 1 1.0 4.0732 4.0732 6.7888
29 1 1 1.0 4.0732 1.3578 9.5042
30 1 1 1.0 1.3578 4.0732 9.5042
31 1 1 1.0 0 0 16.293
32 1 1 1.0 5.431 0 16.293
33 1 1 1.0 0 5.431 16.293
34 1 1 1.0 5.431 5.431 16.293
35 1 1 1.0 5.431 2.7155 13.578
36 1 1 1.0 2.7155 0 13.578
37 1 1 1.0 2.7155 5.431 13.578
38 1 1 1.0 0 2.7155 13.578
39 1 1 1.0 2.7155 2.7155 16.293
40 1 1 1.0 1.3578 1.3578 12.22
41 1 1 1.0 4.0732 4.0732 12.22
42 1 1 1.0 4.0732 1.3578 14.935
43 1 1 1.0 1.3578 4.0732 14.935
44 1 1 1.0 0 0 21.724
45 1 1 1.0 5.431 0 21.724
46 1 1 1.0 0 5.431 21.724
47 1 1 1.0 5.431 5.431 21.724
48 1 1 1.0 5.431 2.7155 19.008
49 1 1 1.0 2.7155 0 19.008
50 1 1 1.0 2.7155 5.431 19.008
51 1 1 1.0 0 2.7155 19.008
52 1 1 1.0 2.7155 2.7155 21.724
53 1 1 1.0 1.3578 1.3578 17.651
54 1 1 1.0 4.0732 4.0732 17.651
55 1 1 1.0 4.0732 1.3578 20.366
56 1 1 1.0 1.3578 4.0732 20.366
57 1 1 1.0 0 0 27.155
58 1 1 1.0 5.431 0 27.155
59 1 1 1.0 0 5.431 27.155
60 1 1 1.0 5.431 5.431 27.155
61 1 1 1.0 5.431 2.7155 24.439
62 1 1 1.0 2.7155 0 24.439
63 1 1 1.0 2.7155 5.431 24.439
64 1 1 1.0 0 2.7155 24.439
65 1 1 1.0 2.7155 2.7155 27.155
66 1 1 1.0 1.3578 1.3578 23.082
67 1 1 1.0 4.0732 4.0732 23.082
68 1 1 1.0 4.0732 1.3578 25.797
69 1 1 1.0 1.3578 4.0732 25.797
70 1 1 1.0 0 0 32.586
71 1 1 1.0 5.431 0 32.586
72 1 1 1.0 0 5.431 32.586
73 1 1 1.0 5.431 5.431 32.586
74 1 1 1.0 5.431 2.7155 29.87
75 1 1 1.0 2.7155 0 29.87
76 1 1 1.0 2.7155 5.431 29.87
77 1 1 1.0 0 2.7155 29.87
78 1 1 1.0 2.7155 2.7155 32.586
79 1 1 1.0 1.3578 1.3578 28.513
80 1 1 1.0 4.0732 4.0732 28.513
81 1 1 1.0 4.0732 1.3578 31.228
82 1 1 1.0 1.3578 4.0732 31.228
83 1 1 1.0 0 0 38.017
84 1 1 1.0 5.431 0 38.017
85 1 1 1.0 0 5.431 38.017
86 1 1 1.0 5.431 5.431 38.017
87 1 1 1.0 5.431 2.7155 35.301
88 1 1 1.0 2.7155 0 35.301
89 1 1 1.0 2.7155 5.431 35.301
90 1 1 1.0 0 2.7155 35.301
91 1 1 1.0 2.7155 2.7155 38.017
92 1 1 1.0 1.3578 1.3578 33.944
93 1 1 1.0 4.0732 4.0732 33.944
94 1 1 1.0 4.0732 1.3578 36.659
95 1 1 1.0 1.3578 4.0732 36.659
96 1 1 1.0 0 0 43.448
97 1 1 1.0 5.431 0 43.448
98 1 1 1.0 0 5.431 43.448
99 1 1 1.0 5.431 5.431 43.448
100 1 1 1.0 5.431 2.7155 40.733
101 1 1 1.0 2.7155 0 40.733
102 1 1 1.0 2.7155 5.431 40.733
103 1 1 1.0 0 2.7155 40.733
104 1 1 1.0 2.7155 2.7155 43.448
105 1 1 1.0 1.3578 1.3578 39.375
106 1 1 1.0 4.0732 4.0732 39.375
107 1 1 1.0 4.0732 1.3578 42.09
108 1 1 1.0 1.3578 4.0732 42.09
109 1 1 1.0 0 0 48.879
110 1 1 1.0 5.431 0 48.879
111 1 1 1.0 0 5.431 48.879
112 1 1 1.0 5.431 5.431 48.879
113 1 1 1.0 5.431 2.7155 46.163
114 1 1 1.0 2.7155 0 46.163
115 1 1 1.0 2.7155 5.431 46.163
116 1 1 1.0 0 2.7155 46.163
117 1 1 1.0 2.7155 2.7155 48.879
118 1 1 1.0 1.3578 1.3578 44.806
119 1 1 1.0 4.0732 4.0732 44.806
120 1 1 1.0 4.0732 1.3578 47.521
121 1 1 1.0 1.3578 4.0732 47.521
122 1 1 1.0 0 0 54.31
123 1 1 1.0 5.431 0 54.31
124 1 1 1.0 0 5.431 54.31
125 1 1 1.0 5.431 5.431 54.31
126 1 1 1.0 5.431 2.7155 51.594
127 1 1 1.0 2.7155 0 51.594
128 1 1 1.0 2.7155 5.431 51.594
129 1 1 1.0 0 2.7155 51.594
130 1 1 1.0 2.7155 2.7155 54.31
131 1 1 1.0 1.3578 1.3578 50.237
132 1 1 1.0 4.0732 4.0732 50.237
133 1 1 1.0 4.0732 1.3578 52.952
134 1 1 1.0 1.3578 4.0732 52.952
135 1 1 1.0 0 10.862 0
136 1 1 1.0 5.431 10.862 0
137 1 1 1.0 0 10.862 5.431
138 1 1 1.0 5.431 10.862 5.431
139 1 1 1.0 2.7155 8.1465 0
140 1 1 1.0 5.431 8.1465 2.7155
141 1 1 1.0 2.7155 10.862 2.7155
142 1 1 1.0 0 8.1465 2.7155
143 1 1 1.0 2.7155 8.1465 5.431
144 1 1 1.0 1.3578 6.7888 1.3578
145 1 1 1.0 4.0732 9.5042 1.3578
146 1 1 1.0 4.0732 6.7888 4.0732
147 1 1 1.0 1.3578 9.5042 4.0732
148 1 1 1.0 0 10.862 10.862
149 1 1 1.0 5.431 10.862 10.862
150 1 1 1.0 5.431 8.1465 8.1465
151 1 1 1.0 2.7155 10.862 8.1465
152 1 1 1.0 0 8.1465 8.1465
153 1 1 1.0 2.7155 8.1465 10.862
154 1 1 1.0 1.3578 6.7888 6.7888
155 1 1 1.0 4.0732 9.5042 6.7888
156 1 1 1.0 4.0732 6.7888 9.5042
157 1 1 1.0 1.3578 9.5042 9.5042
158 1 1 1.0 0 10.862 16.293
159 1 1 1.0 5.431 10.862 16.293
160 1 1 1.0 5.431 8.1465 13.578
161 1 1 1.0 2.7155 10.862 13.578
162 1 1 1.0 0 8.1465 13.578
163 1 1 1.0 2.7155 8.1465 16.293
164 1 1 1.0 1.3578 6.7888 12.22
165 1 1 1.0 4.0732 9.5042 12.22
166 1 1 1.0 4.0732 6.7888 14.935
167 1 1 1.0 1.3578 9.5042 14.935
168 1 1 1.0 0 10.862 21.724
169 1 1 1.0 5.431 10.862 21.724
170 1 1 1.0 5.431 8.1465 19.008
171 1 1 1.0 2.7155 10.862 19.008
172 1 1 1.0 0 8.1465 19.008
173 1 1 1.0 2.7155 8.1465 21.724
174 1 1 1.0 1.3578 6.7888 17.651
175 1 1 1.0 4.0732 9.5042 17.651
176 1 1 1.0 4.0732 6.7888 20.366
177 1 1 1.0 1.3578 9.5042 20.366
178 1 1 1.0 0 10.862 27.155
179 1 1 1.0 5.431 10.862 27.155
180 1 1 1.0 5.431 8.1465 24.439
181 1 1 1.0 2.7155 10.862 24.439
182 1 1 1.0 0 8.1465 24.439
183 1 1 1.0 2.7155 8.1465 27.155
184 1 1 1.0 1.3578 6.7888 23.082
185 1 1 1.0 4.0732 9.5042 23.082
186 1 1 1.0 4.0732 6.7888 25.797
187 1 1 1.0 1.3578 9.5042 25.797
188 1 1 1.0 0 10.862 32.586
189 1 1 1.0 5.431 10.862 32.586
190 1 1 1.0 5.431 8.1465 29.87
191 1 1 1.0 2.7155 10.862 29.87
192 1 1 1.0 0 8.1465 29.87
193 1 1 1.0 2.7155 8.1465 32.586
194 1 1 1.0 1.3578 6.7888 28.513
195 1 1 1.0 4.0732 9.5042 28.513
196 1 1 1.0 4.0732 6.7888 31.228
197 1 1 1.0 1.3578 9.5042 31.228
198 1 1 1.0 0 10.862 38.017
199 1 1 1.0 5.431 10.862 38.017
200 1 1 1.0 5.431 8.1465 35.301
201 1 1 1.0 2.7155 10.862 35.301
202 1 1 1.0 0 8.1465 35.301
203 1 1 1.0 2.7155 8.1465 38.017
204 1 1 1.0 1.3578 6.7888 33.944
205 1 1 1.0 4.0732 9.5042 33.944
206 1 1 1.0 4.0732 6.7888 36.659
207 1 1 1.0 1.3578 9.5042 36.659
208 1 1 1.0 0 10.862 43.448
209 1 1 1.0 5.431 10.862 43.448
210 1 1 1.0 5.431 8.1465 40.733
211 1 1 1.0 2.7155 10.862 40.733
212 1 1 1.0 0 8.1465 40.733
213 1 1 1.0 2.7155 8.1465 43.448
214 1 1 1.0 1.3578 6.7888 39.375
215 1 1 1.0 4.0732 9.5042 39.375
216 1 1 1.0 4.0732 6.7888 42.09
217 1 1 1.0 1.3578 9.5042 42.09
218 1 1 1.0 0 10.862 48.879
219 1 1 1.0 5.431 10.862 48.879
220 1 1 1.0 5.431 8.1465 46.163
221 1 1 1.0 2.7155 10.862 46.163
222 1 1 1.0 0 8.1465 46.163
223 1 1 1.0 2.7155 8.1465 48.879
224 1 1 1.0 1.3578 6.7888 44.806
225 1 1 1.0 4.0732 9.5042 44.806
226 1 1 1.0 4.0732 6.7888 47.521
227 1 1 1.0 1.3578 9.5042 47.521
228 1 1 1.0 0 10.862 54.31
229 1 1 1.0 5.431 10.862 54.31
230 1 1 1.0 5.431 8.1465 51.594
231 1 1 1.0 2.7155 10.862 51.594
232 1 1 1.0 0 8.1465 51.594
233 1 1 1.0 2.7155 8.1465 54.31
234 1 1 1.0 1.3578 6.7888 50.237
235 1 1 1.0 4.0732 9.5042 50.237
236 1 1 1.0 4.0732 6.7888 52.952
237 1 1 1.0 1.3578 9.5042 52.952
238 1 1 1.0 0 16.293 0
239 1 1 1.0 5.431 16.293 0
240 1 1 1.0 0 16.293 5.431
241 1 1 1.0 5.431 16.293 5.431
242 1 1 1.0 2.7155 13.578 0
243 1 1 1.0 5.431 13.578 2.7155
244 1 1 1.0 2.7155 16.293 2.7155
245 1 1 1.0 0 13.578 2.7155
246 1 1 1.0 2.7155 13.578 5.431
247 1 1 1.0 1.3578 12.22 1.3578
248 1 1 1.0 4.0732 14.935 1.3578
249 1 1 1.0 4.0732 12.22 4.0732
250 1 1 1.0 1.3578 14.935 4.0732
251 1 1 1.0 0 16.293 10.862
252 1 1 1.0 5.431 16.293 10.862
253 1 1 1.0 5.431 13.578 8.1465
254 1 1 1.0 2.7155 16.293 8.1465
255 1 1 1.0 0 13.578 8.1465
256 1 1 1.0 2.7155 13.578 10.862
257 1 1 1.0 1.3578 12.22 6.7888
258 1 1 1.0 4.0732 14.935 6.7888
259 1 1 1.0 4.0732 12.22 9.5042
260 1 1 1.0 1.3578 14.935 9.5042
261 1 1 1.0 0 16.293 16.293
262 1 1 1.0 5.431 16.293 16.293
263 1 1 1.0 5.431 13.578 13.578
264 1 1 1.0 2.7155 16.293 13.578
265 1 1 1.0 0 13.578 13.578
266 1 1 1.0 2.7155 13.578 16.293
267 1 1 1.0 1.3578 12.22 12.22
268 1 1 1.0 4.0732 14.935 12.22
269 1 1 1.0 4.0732 12.22 14.935
270 1 1 1.0 1.3578 14.935 14.935
271 1 1 1.0 0 16.293 21.724
272 1 1 1.0 5.431 16.293 21.724
273 1 1 1.0 5.431 13.578 19.008
274 1 1 1.0 2.7155 16.293 19.008
275 1 1 1.0 0 13.578 19.008
276 1 1 1.0 2.7155 13.578 21.724
277 1 1 1.0 1.3578 12.22 17.651
278 1 1 1.0 4.0732 14.935 17.651
279 1 1 1.0 4.0732 12.22 20.366
280 1 1 1.0 1.3578 14.935 20.366
281 1 1 1.0 0 16.293 27.155
282 1 1 1.0 5.431 16.293 27.155
283 1 1 1.0 5.431 13.578 24.439
284 1 1 1.0 2.7155 16.293 24.439
285 1 1 1.0 0 13.578 24.439
286 1 1 1.0 2.7155 13.578 27.155
287 1 1 1.0 1.3578 12.22 23.082
288 1 1 1.0 4.0732 14.935 23.082
289 1 1 1.0 4.0732 12.22 25.797
290 1 1 1.0 1.3578 14.935 25.797
291 1 1 1.0 0 16.293 32.586
292 1 1 1.0 5.431 16.293 32.586
293 1 1 1.0 5.431 13.578 29.87
294 1 1 1.0 2.7155 16.293 29.87
295 1 1 1.0 0 13.578 29.87
296 1 1 1.0 2.7155 13.578 32.586
297 1 1 1.0 1.3578 12.22 28.513
298 1 1 1.0 4.0732 14.935 28.513
299 1 1 1.0 4.0732 12.22 31.228
300 1 1 1.0 1.3578 14.935 31.228
301 1 1 1.0 0 16.293 38.017
302 1 1 1.0 5.431 16.293 38.017
303 1 1 1.0 5.431 13.578 35.301
304 1 1 1.0 2.7155 16.293 35.301
305 1 1 1.0 0 13.578 35.301
306 1 1 1.0 2.7155 13.578 38.017
307 1 1 1.0 1.3578 12.22 33.944
308 1 1 1.0 4.0732 14.935 33.944
309 1 1 1.0 4.0732 12.22 36.659
310 1 1 1.0 1.3578 14.935 36.659
311 1 1 1.0 0 16.293 43.448
312 1 1 1.0 5.431 16.293 43.448
313 1 1 1.0 5.431 13.578 40.733
314 1 1 1.0 2.7155 16.293 40.733
315 1 1 1.0 0 13.578 40.733
316 1 1 1.0 2.7155 13.578 43.448
317 1 1 1.0 1.3578 12.22 39.375
318 1 1 1.0 4.0732 14.935 39.375
319 1 1 1.0 4.0732 12.22 42.09
320 1 1 1.0 1.3578 14.935 42.09
321 1 1 1.0 0 16.293 48.879
322 1 1 1.0 5.431 16.293 48.879
323 1 1 1.0 5.431 13.578 46.163
324 1 1 1.0 2.7155 16.293 46.163
325 1 1 1.0 0 13.578 46.163
326 1 1 1.0 2.7155 13.578 48.879
327 1 1 1.0 1.3578 12.22 44.806
328 1 1 1.0 4.0732 14.935 44.806
329 1 1 1.0 4.0732 12.22 47.521
330 1 1 1.0 1.3578 14.935 47.521
331 1 1 1.0 0 16.293 54.31
332 1 1 1.0 5.431 16.293 54.31
333 1 1 1.0 5.431 13.578 51.594
334 1 1 1.0 2.7155 16.293 51.594
335 1 1 1.0 0 13.578 51.594
336 1 1 1.0 2.7155 13.578 54.31
337 1 1 1.0 1.3578 12.22 50.237
338 1 1 1.0 4.0732 14.935 50.237
339 1 1 1.0 4.0732 12.22 52.952
340 1 1 1.0 1.3578 14.935 52.952
341 1 1 1.0 0 21.724 0
342 1 1 1.0 5.431 21.724 0
343 1 1 1.0 0 21.724 5.431
344 1 1 1.0 5.431 21.724 5.431
345 1 1 1.0 2.7155 19.008 0
346 1 1 1.0 5.431 19.008 2.7155
347 1 1 1.0 2.7155 21.724 2.7155
348 1 1 1.0 0 19.008 2.7155
349 1 1 1.0 2.7155 19.008 5.431
350 1 1 1.0 1.3578 17.651 1.3578
351 1 1 1.0 4.0732 20.366 1.3578
352 1 1 1.0 4.0732 17.651 4.0732
353 1 1 1.0 1.3578 20.366 4.0732
354 1 1 1.0 0 21.724 10.862
355 1 1 1.0 5.431 21.724 10.862
356 1 1 1.0 5.431 19.008 8.1465
357 1 1 1.0 2.7155 21.724 8.1465
358 1 1 1.0 0 19.008 8.1465
359 1 1 1.0 2.7155 19.008 10.862
360 1 1 1.0 1.3578 17.651 6.7888
361 1 1 1.0 4.0732 20.366 6.7888
362 1 1 1.0 4.0732 17.651 9.5042
363 1 1 1.0 1.3578 20.366 9.5042
364 1 1 1.0 0 21.724 16.293
365 1 1 1.0 5.431 21.724 16.293
366 1 1 1.0 5.431 19.008 13.578
367 1 1 1.0 2.7155 21.724 13.578
368 1 1 1.0 0 19.008 13.578
369 1 1 1.0 2.7155 19.008 16.293
370 1 1 1.0 1.3578 17.651 12.22
371 1 1 1.0 4.0732 20.366 12.22
372 1 1 1.0 4.0732 17.651 14.935
373 1 1 1.0 1.3578 20.366 14.935
374 1 1 1.0 0 21.724 21.724
375 1 1 1.0 5.431 21.724 21.724
376 1 1 1.0 5.431 19.008 19.008
377 1 1 1.0 2.7155 21.724 19.008
378 1 1 1.0 0 19.008 19.008
379 1 1 1.0 2.7155 19.008 21.724
380 1 1 1.0 1.3578 17.651 17.651
381 1 1 1.0 4.0732 20.366 17.651
382 1 1 1.0 4.0732 17.651 20.366
383 1 1 1.0 1.3578 20.366 20.366
384 1 1 1.0 0 21.724 27.155
385 1 1 1.0 5.431 21.724 27.155
386 1 1 1.0 5.431 19.008 24.439
387 1 1 1.0 2.7155 21.724 24.439
388 1 1 1.0 0 19.008 24.439
389 1 1 1.0 2.7155 19.008 27.155
390 1 1 1.0 1.3578 17.651 23.082
391 1 1 1.0 4.0732 20.366 23.082
392 1 1 1.0 4.0732 17.651 25.797
393 1 1 1.0 1.3578 20.366 25.797
394 1 1 1.0 0 21.724 32.586
395 1 1 1.0 5.431 21.724 32.586
396 1 1 1.0 5.431 19.008 29.87
397 1 1 1.0 2.7155 21.724 29.87
398 1 1 1.0 0 19.008 29.87
399 1 1 1.0 2.7155 19.008 32.586
400 1 1 1.0 1.3578 17.651 28.513
401 1 1 1.0 4.0732 20.366 28.513
402 1 1 1.0 4.0732 17.651 31.228
403 1 1 1.0 1.3578 20.366 31.228
404 1 1 1.0 0 21.724 38.017
405 1 1 1.0 5.431 21.724 38.017
406 1 1 1.0 5.431 19.008 35.301
407 1 1 1.0 2.7155 21.724 35.301
408 1 1 1.0 0 19.008 35.301
409 1 1 1.0 2.7155 19.008 38.017
410 1 1 1.0 1.3578 17.651 33.944
411 1 1 1.0 4.0732 20.366 33.944
412 1 1 1.0 4.0732 17.651 36.659
413 1 1 1.0 1.3578 20.366 36.659
414 1 1 1.0 0 21.724 43.448
415 1 1 1.0 5.431 21.724 43.448
416 1 1 1.0 5.431 19.008 40.733
417 1 1 1.0 2.7155 21.724 40.733
418 1 1 1.0 0 19.008 40.733
419 1 1 1.0 2.7155 19.008 43.448
420 1 1 1.0 1.3578 17.651 39.375
421 1 1 1.0 4.0732 20.366 39.375
422 1 1 1.0 4.0732 17.651 42.09
423 1 1 1.0 1.3578 20.366 42.09
424 1 1 1.0 0 21.724 48.879
425 1 1 1.0 5.431 21.724 48.879
426 1 1 1.0 5.431 19.008 46.163
427 1 1 1.0 2.7155 21.724 46.163
428 1 1 1.0 0 19.008 46.163
429 1 1 1.0 2.7155 19.008 48.879
430 1 1 1.0 1.3578 17.651 44.806
431 1 1 1.0 4.0732 20.366 44.806
432 1 1 1.0 4.0732 17.651 47.521
433 1 1 1.0 1.3578 20.366 47.521
434 1 1 1.0 0 21.724 54.31
435 1 1 1.0 5.431 21.724 54.31
436 1 1 1.0 5.431 19.008 51.594
437 1 1 1.0 2.7155 21.724 51.594
438 1 1 1.0 0 19.008 51.594
439 1 1 1.0 2.7155 19.008 54.31
440 1 1 1.0 1.3578 17.651 50.237
441 1 1 1.0 4.0732 20.366 50.237
442 1 1 1.0 4.0732 17.651 52.952
443 1 1 1.0 1.3578 20.366 52.952
444 1 1 1.0 0 27.155 0
445 1 1 1.0 5.431 27.155 0
446 1 1 1.0 0 27.155 5.431
447 1 1 1.0 5.431 27.155 5.431
448 1 1 1.0 2.7155 24.439 0
449 1 1 1.0 5.431 24.439 2.7155
450 1 1 1.0 2.7155 27.155 2.7155
451 1 1 1.0 0 24.439 2.7155
452 1 1 1.0 2.7155 24.439 5.431
453 1 1 1.0 1.3578 23.082 1.3578
454 1 1 1.0 4.0732 25.797 1.3578
455 1 1 1.0 4.0732 23.082 4.0732
456 1 1 1.0 1.3578 25.797 4.0732
457 1 1 1.0 0 27.155 10.862
458 1 1 1.0 5.431 27.155 10.862
459 1 1 1.0 5.431 24.439 8.1465
460 1 1 1.0 2.7155 27.155 8.1465
461 1 1 1.0 0 24.439 8.1465
462 1 1 1.0 2.7155 24.439 10.862
463 1 1 1.0 1.3578 23.082 6.7888
464 1 1 1.0 4.0732 25.797 6.7888
465 1 1 1.0 4.0732 23.082 9.5042
466 1 1 1.0 1.3578 25.797 9.5042
467 1 1 1.0 0 27.155 16.293
468 1 1 1.0 5.431 27.155 16.293
469 1 1 1.0 5.431 24.439 13.578
470 1 1 1.0 2.7155 27.155 13.578
471 1 1 1.0 0 24.439 13.578
472 1 1 1.0 2.7155 24.439 16.293
473 1 1 1.0 1.3578 23.082 12.22
474 1 1 1.0 4.0732 25.797 12.22
475 1 1 1.0 4.0732 23.082 14.935
476 1 1 1.0 1.3578 25.797 14.935
477 1 1 1.0 0 27.155 21.724
478 1 1 1.0 5.431 27.155 21.724
479 1 1 1.0 5.431 24.439 19.008
480 1 1 1.0 2.7155 27.155 19.008
481 1 1 1.0 0 24.439 19.008
482 1 1 1.0 2.7155 24.439 21.724
483 1 1 1.0 1.3578 23.082 17.651
484 1 1 1.0 4.0732 25.797 17.651
485 1 1 1.0 4.0732 23.082 20.366
486 1 1 1.0 1.3578 25.797 20.366
487 1 1 1.0 0 27.155 27.155
488 1 1 1.0 5.431 27.155 27.155
489 1 1 1.0 5.431 24.439 24.439
490 1 1 1.0 2.7155 27.155 24.439
491 1 1 1.0 0 24.439 24.439
492 1 1 1.0 2.7155 24.439 27.155
493 1 1 1.0 1.3578 23.082 23.082
494 1 1 1.0 4.0732 25.797 23.082
495 1 1 1.0 4.0732 23.082 25.797
496 1 1 1.0 1.3578 25.797 25.797
497 1 1 1.0 0 27.155 32.586
498 1 1 1.0 5.431 27.155 32.586
499 1 1 1.0 5.431 24.439 29.87
500 1 1 1.0 2.7155 27.155 29.87
501 1 1 1.0 0 24.439 29.87
502 1 1 1.0 2.7155 24.439 32.586
503 1 1 1.0 1.3578 23.082 28.513
504 1 1 1.0 4.0732 25.797 28.513
505 1 1 1.0 4.0732 23.082 31.228
506 1 1 1.0 1.3578 25.797 31.228
507 1 1 1.0 0 27.155 38.017
508 1 1 1.0 5.431 27.155 38.017
509 1 1 1.0 5.431 24.439 35.301
510 1 1 1.0 2.7155 27.155 35.301
511 1 1 1.0 0 24.439 35.301
512 1 1 1.0 2.7155 24.439 38.017
513 1 1 1.0 1.3578 23.082 33.944
514 1 1 1.0 4.0732 25.797 33.944
515 1 1 1.0 4.0732 23.082 36.659
516 1 1 1.0 1.3578 25.797 36.659
517 1 1 1.0 0 27.155 43.448
518 1 1 1.0 5.431 27.155 43.448
519 1 1 1.0 5.431 24.439 40.733
520 1 1 1.0 2.7155 27.155 40.733
521 1 1 1.0 0 24.439 40.733
522 1 1 1.0 2.7155 24.439 43.448
523 1 1 1.0 1.3578 23.082 39.375
524 1 1 1.0 4.0732 25.797 39.375
525 1 1 1.0 4.0732 23.082 42.09
526 1 1 1.0 1.3578 25.797 42.09
527 1 1 1.0 0 27.155 48.879
528 1 1 1.0 5.431 27.155 48.879
529 1 1 1.0 5.431 24.439 46.163
530 1 1 1.0 2.7155 27.155 46.163
531 1 1 1.0 0 24.439 46.163
532 1 1 1.0 2.7155 24.439 48.879
533 1 1 1.0 1.3578 23.082 44.806
534 1 1 1.0 4.0732 25.797 44.806
535 1 1 1.0 4.0732 23.082 47.521
536 1 1 1.0 1.3578 25.797 47.521
537 1 1 1.0 0 27.155 54.31
538 1 1 1.0 5.431 27.155 54.31
539 1 1 1.0 5.431 24.439 51.594
540 1 1 1.0 2.7155 27.155 51.594
541 1 1 1.0 0 24.439 51.594
542 1 1 1.0 2.7155 24.439 54.31
543 1 1 1.0 1.3578 23.082 50.237
544 1 1 1.0 4.0732 25.797 50.237
545 1 1 1.0 4.0732 23.082 52.952
546 1 1 1.0 1.3578 25.797 52.952
547 1 1 1.0 0 32.586 0
548 1 1 1.0 5.431 32.586 0
549 1 1 1.0 0 32.586 5.431
550 1 1 1.0 5.431 32.586 5.431
551 1 1 1.0 2.7155 29.87 0
552 1 1 1.0 5.431 29.87 2.7155
553 1 1 1.0 2.7155 32.586 2.7155
554 1 1 1.0 0 29.87 2.7155
555 1 1 1.0 2.7155 29.87 5.431
556 1 1 1.0 1.3578 28.513 1.3578
557 1 1 1.0 4.0732 31.228 1.3578
558 1 1 1.0 4.0732 28.513 4.0732
559 1 1 1.0 1.3578 31.228 4.0732
560 1 1 1.0 0 32.586 10.862
561 1 1 1.0 5.431 32.586 10.862
562 1 1 1.0 5.431 29.87 8.1465
563 1 1 1.0 2.7155 32.586 8.1465
564 1 1 1.0 0 29.87 8.1465
565 1 1 1.0 2.7155 29.87 10.862
566 1 1 1.0 1.3578 28.513 6.7888
567 1 1 1.0 4.0732 31.228 6.7888
568 1 1 1.0 4.0732 28.513 9.5042
569 1 1 1.0 1.3578 31.228 9.5042
570 1 1 1.0 0 32.586 16.293
571 1 1 1.0 5.431 32.586 16.293
572 1 1 1.0 5.431 29.87 13.578
573 1 1 1.0 2.7155 32.586 13.578
574 1 1 1.0 0 29.87 13.578
575 1 1 1.0 2.7155 29.87 16.293
576 1 1 1.0 1.3578 28.513 12.22
577 1 1 1.0 4.0732 31.228 12.22
578 1 1 1.0 4.0732 28.513 14.935
579 1 1 1.0 1.3578 31.228 14.935
580 1 1 1.0 0 32.586 21.724
581 1 1 1.0 5.431 32.586 21.724
582 1 1 1.0 5.431 29.87 19.008
583 1 1 1.0 2.7155 32.586 19.008
584 1 1 1.0 0 29.87 19.008
585 1 1 1.0 2.7155 29.87 21.724
586 1 1 1.0 1.3578 28.513 17.651
587 1 1 1.0 4.0732 31.228 17.651
588 1 1 1.0 4.0732 28.513 20.366
589 1 1 1.0 1.3578 31.228 20.366
590 1 1 1.0 0 32.586 27.155
591 1 1 1.0 5.431 32.586 27.155
592 1 1 1.0 5.431 29.87 24.439
593 1 1 1.0 2.7155 32.586 24.439
594 1 1 1.0 0 29.87 24.439
595 1 1 1.0 2.7155 29.87 27.155
596 1 1 1.0 1.3578 28.513 23.082
597 1 1 1.0 4.0732 31.228 23.082
598 1 1 1.0 4.0732 28.513 25.797
599 1 1 1.0 1.3578 31.228 25.797
600 1 1 1.0 0 32.586 32.586
601 1 1 1.0 5.431 32.586 32.586
602 1 1 1.0 5.431 29.87 29.87
603 1 1 1.0 2.7155 32.586 29.87
604 1 1 1.0 0 29.87 29.87
605 1 1 1.0 2.7155 29.87 32.586
606 1 1 1.0 1.3578 28.513 28.513
607 1 1 1.0 4.0732 31.228 28.513
608 1 1 1.0 4.0732 28.513 31.228
609 1 1 1.0 1.3578 31.228 31.228
610 1 1 1.0 0 32.586 38.017
611 1 1 1.0 5.431 32.586 38.017
612 1 1 1.0 5.431 29.87 35.301
613 1 1 1.0 2.7155 32.586 35.301
614 1 1 1.0 0 29.87 35.301
615 1 1 1.0 2.7155 29.87 38.017
616 1 1 1.0 1.3578 28.513 33.944
617 1 1 1.0 4.0732 31.228 33.944
618 1 1 1.0 4.0732 28.513 36.659
619 1 1 1.0 1.3578 31.228 36.659
620 1 1 1.0 0 32.586 43.448
621 1 1 1.0 5.431 32.586 43.448
622 1 1 1.0 5.431 29.87 40.733
623 1 1 1.0 2.7155 32.586 40.733
624 1 1 1.0 0 29.87 40.733
625 1 1 1.0 2.7155 29.87 43.448
626 1 1 1.0 1.3578 28.513 39.375
627 1 1 1.0 4.0732 31.228 39.375
628 1 1 1.0 4.0732 28.513 42.09
629 1 1 1.0 1.3578 31.228 42.09
630 1 1 1.0 0 32.586 48.879
631 1 1 1.0 5.431 32.586 48.879
632 1 1 1.0 5.431 29.87 46.163
633 1 1 1.0 2.7155 32.586 46.163
634 1 1 1.0 0 29.87 46.163
635 1 1 1.0 2.7155 29.87 48.879
636 1 1 1.0 1.3578 28.513 44.806
637 1 1 1.0 4.0732 31.228 44.806
638 1 1 1.0 4.0732 28.513 47.521
639 1 1 1.0 1.3578 31.228 47.521
640 1 1 1.0 0 32.586 54.31
641 1 1 1.0 5.431 32.586 54.31
642 1 1 1.0 5.431 29.87 51.594
643 1 1 1.0 2.7155 32.586 51.594
644 1 1 1.0 0 29.87 51.594
645 1 1 1.0 2.7155 29.87 54.31
646 1 1 1.0 1.3578 28.513 50.237
647 1 1 1.0 4.0732 31.228 50.237
648 1 1 1.0 4.0732 28.513 52.952
649 1 1 1.0 1.3578 31.228 52.952
650 1 1 1.0 0 38.017 0
651 1 1 1.0 5.431 38.017 0
652 1 1 1.0 0 38.017 5.431
653 1 1 1.0 5.431 38.017 5.431
654 1 1 1.0 2.7155 35.301 0
655 1 1 1.0 5.431 35.301 2.7155
656 1 1 1.0 2.7155 38.017 2.7155
657 1 1 1.0 0 35.301 2.7155
658 1 1 1.0 2.7155 35.301 5.431
659 1 1 1.0 1.3578 33.944 1.3578
660 1 1 1.0 4.0732 36.659 1.3578
661 1 1 1.0 4.0732 33.944 4.0732
662 1 1 1.0 1.3578 36.659 4.0732
663 1 1 1.0 0 38.017 10.862
664 1 1 1.0 5.431 38.017 10.862
665 1 1 1.0 5.431 35.301 8.1465
666 1 1 1.0 2.7155 38.017 8.1465
667 1 1 1.0 0 35.301 8.1465
668 1 1 1.0 2.7155 35.301 10.862
669 1 1 1.0 1.3578 33.944 6.7888
670 1 1 1.0 4.0732 36.659 6.7888
671 1 1 1.0 4.0732 33.944 9.5042
672 1 1 1.0 1.3578 36.659 9.5042
673 1 1 1.0 0 38.017 16.293
674 1 1 1.0 5.431 38.017 16.293
675 1 1 1.0 5.431 35.301 13.578
676 1 1 1.0 2.7155 38.017 13.578
677 1 1 1.0 0 35.301 13.578
678 1 1 1.0 2.7155 35.301 16.293
679 1 1 1.0 1.3578 33.944 12.22
680 1 1 1.0 4.0732 36.659 12.22
681 1 1 1.0 4.0732 33.944 14.935
682 1 1 1.0 1.3578 36.659 14.935
683 1 1 1.0 0 38.017 21.724
684 1 1 1.0 5.431 38.017 21.724
685 1 1 1.0 5.431 35.301 19.008
686 1 1 1.0 2.7155 38.017 19.008
687 1 1 1.0 0 35.301 19.008
688 1 1 1.0 2.7155 35.301 21.724
689 1 1 1.0 1.3578 33.944 17.651
690 1 1 1.0 4.0732 36.659 17.651
691 1 1 1.0 4.0732 33.944 20.366
692 1 1 1.0 1.3578 36.659 20.366
693 1 1 1.0 0 38.017 27.155
694 1 1 1.0 5.431 38.017 27.155
695 1 1 1.0 5.431 35.301 24.439
696 1 1 1.0 2.7155 38.017 24.439
697 1 1 1.0 0 35.301 24.439
698 1 1 1.0 2.7155 35.301 27.155
699 1 1 1.0 1.3578 33.944 23.082
700 1 1 1.0 4.0732 36.659 23.082
701 1 1 1.0 4.0732 33.944 25.797
702 1 1 1.0 1.3578 36.659 25.797
703 1 1 1.0 0 38.017 32.586
704 1 1 1.0 5.431 38.017 32.586
705 1 1 1.0 5.431 35.301 29.87
706 1 1 1.0 2.7155 38.017 29.87
707 1 1 1.0 0 35.301 29.87
708 1 1 1.0 2.7155 35.301 32.586
709 1 1 1.0 1.3578 33.944 28.513
710 1 1 1.0 4.0732 36.659 28.513
711 1 1 1.0 4.0732 33.944 31.228
712 1 1 1.0 1.3578 36.659 31.228
713 1 1 1.0 0 38.017 38.017
714 1 1 1.0 5.431 38.017 38.017
715 1 1 1.0 5.431 35.301 35.301
716 1 1 1.0 2.7155 38.017 35.301
717 1 1 1.0 0 35.301 35.301
718 1 1 1.0 2.7155 35.301 38.017
719 1 1 1.0 1.3578 33.944 33.944
720 1 1 1.0 4.0732 36.659 33.944
721 1 1 1.0 4.0732 33.944 36.659
722 1 1 1.0 1.3578 36.659 36.659
723 1 1 1.0 0 38.017 43.448
724 1 1 1.0 5.431 38.017 43.448
725 1 1 1.0 5.431 35.301 40.733
726 1 1 1.0 2.7155 38.017 40.733
727 1 1 1.0 0 35.301 40.733
728 1 1 1.0 2.7155 35.301 43.448
729 1 1 1.0 1.3578 33.944 39.375
730 1 1 1.0 4.0732 36.659 39.375
731 1 1 1.0 4.0732 33.944 42.09
732 1 1 1.0 1.3578 36.659 42.09
733 1 1 1.0 0 38.017 48.879
734 1 1 1.0 5.431 38.017 48.879
735 1 1 1.0 5.431 35.301 46.163
736 1 1 1.0 2.7155 38.017 46.163
737 1 1 1.0 0 35.301 46.163
738 1 1 1.0 2.7155 35.301 48.879
739 1 1 1.0 1.3578 33.944 44.806
740 1 1 1.0 4.0732 36.659 44.806
741 1 1 1.0 4.0732 33.944 47.521
742 1 1 1.0 1.3578 36.659 47.521
743 1 1 1.0 0 38.017 54.31
744 1 1 1.0 5.431 38.017 54.31
745 1 1 1.0 5.431 35.301 51.594
746 1 1 1.0 2.7155 38.017 51.594
747 1 1 1.0 0 35.301 51.594
748 1 1 1.0 2.7155 35.301 54.31
749 1 1 1.0 1.3578 33.944 50.237
750 1 1 1.0 4.0732 36.659 50.237
751 1 1 1.0 4.0732 33.944 52.952
752 1 1 1.0 1.3578 36.659 52.952
753 1 1 1.0 0 43.448 0
754 1 1 1.0 5.431 43.448 0
755 1 1 1.0 0 43.448 5.431
756 1 1 1.0 5.431 43.448 5.431
757 1 1 1.0 2.7155 40.733 0
758 1 1 1.0 5.431 40.733 2.7155
759 1 1 1.0 2.7155 43.448 2.7155
760 1 1 1.0 0 40.733 2.7155
761 1 1 1.0 2.7155 40.733 5.431
762 1 1 1.0 1.3578 39.375 1.3578
763 1 1 1.0 4.0732 42.09 1.3578
764 1 1 1.0 4.0732 39.375 4.0732
765 1 1 1.0 1.3578 42.09 4.0732
766 1 1 1.0 0 43.448 10.862
767 1 1 1.0 5.431 43.448 10.862
768 1 1 1.0 5.431 40.733 8.1465
769 1 1 1.0 2.7155 43.448 8.1465
770 1 1 1.0 0 40.733 8.1465
771 1 1 1.0 2.7155 40.733 10.862
772 1 1 1.0 1.3578 39.375 6.7888
773 1 1 1.0 4.0732 42.09 6.7888
774 1 1 1.0 4.0732 39.375 9.5042
775 1 1 1.0 1.3578 42.09 9.5042
776 1 1 1.0 0 43.448 16.293
777 1 1 1.0 5.431 43.448 16.293
778 1 1 1.0 5.431 40.733 13.578
779 1 1 1.0 2.7155 43.448 13.578
780 1 1 1.0 0 40.733 13.578
781 1 1 1.0 2.7155 40.733 16.293
782 1 1 1.0 1.3578 39.375 12.22
783 1 1 1.0 4.0732 42.09 12.22
784 1 1 1.0 4.0732 39.375 14.935
785 1 1 1.0 1.3578 42.09 14.935
786 1 1 1.0 0 43.448 21.724
787 1 1 1.0 5.431 43.448 21.724
788 1 1 1.0 5.431 40.733 19.008
789 1 1 1.0 2.7155 43.448 19.008
790 1 1 1.0 0 40.733 19.008
791 1 1 1.0 2.7155 40.733 21.724
792 1 1 1.0 1.3578 39.375 17.651
793 1 1 1.0 4.0732 42.09 17.651
794 1 1 1.0 4.0732 39.375 20.366
795 1 1 1.0 1.3578 42.09 20.366
796 1 1 1.0 0 43.448 27.155
797 1 1 1.0 5.431 43.448 27.155
798 1 1 1.0 5.431 40.733 24.439
799 1 1 1.0 2.7155 43.448 24.439
800 1 1 1.0 0 40.733 24.439
801 1 1 1.0 2.7155 40.733 27.155
802 1 1 1.0 1.3578 39.375 23.082
803 1 1 1.0 4.0732 42.09 23.082
804 1 1 1.0 4.0732 39.375 25.797
805 1 1 1.0 1.3578 42.09 25.797
806 1 1 1.0 0 43.448 32.586
807 1 1 1.0 5.431 43.448 32.586
808 1 1 1.0 5.431 40.733 29.87
809 1 1 1.0 2.7155 43.448 29.87
810 1 1 1.0 0 40.733 29.87
811 1 1 1.0 2.7155 40.733 32.586
812 1 1 1.0 1.3578 39.375 28.513
813 1 1 1.0 4.0732 42.09 28.513
814 1 1 1.0 4.0732 39.375 31.228
815 1 1 1.0 1.3578 42.09 31.228
816 1 1 1.0 0 43.448 38.017
817 1 1 1.0 5.431 43.448 38.017
818 1 1 1.0 5.431 40.733 35.301
819 1 1 1.0 2.7155 43.448 35.301
820 1 1 1.0 0 40.733 35.301
821 1 1 1.0 2.7155 40.733 38.017
822 1 1 1.0 1.3578 39.375 33.944
823 1 1 1.0 4.0732 42.09 33.944
824 1 1 1.0 4.0732 39.375 36.659
825 1 1 1.0 1.3578 42.09 36.659
826 1 1 1.0 0 43.448 43.448
827 1 1 1.0 5.431 43.448 43.448
828 1 1 1.0 5.431 40.733 40.733
829 1 1 1.0 2.7155 43.448 40.733
830 1 1 1.0 0 40.733 40.733
831 1 1 1.0 2.7155 40.733 43.448
832 1 1 1.0 1.3578 39.375 39.375
833 1 1 1.0 4.0732 42.09 39.375
834 1 1 1.0 4.0732 39.375 42.09
835 1 1 1.0 1.3578 42.09 42.09
836 1 1 1.0 0 43.448 48.879
837 1 1 1.0 5.431 43.448 48.879
838 1 1 1.0 5.431 40.733 46.163
839 1 1 1.0 2.7155 43.448 46.163
840 1 1 1.0 0 40.733 46.163
841 1 1 1.0 2.7155 40.733 48.879
842 1 1 1.0 1.3578 39.375 44.806
843 1 1 1.0 4.0732 42.09 44.806
844 1 1 1.0 4.0732 39.375 47.521
845 1 1 1.0 1.3578 42.09 47.521
846 1 1 1.0 0 43.448 54.31
847 1 1 1.0 5.431 43.448 54.31
848 1 1 1.0 5.431 40.733 51.594
849 1 1 1.0 2.7155 43.448 51.594
850 1 1 1.0 0 40.733 51.594
851 1 1 1.0 2.7155 40.733 54.31
852 1 1 1.0 1.3578 39.375 50.237
853 1 1 1.0 4.0732 42.09 50.237
854 1 1 1.0 4.0732 39.375 52.952
855 1 1 1.0 1.3578 42.09 52.952
856 1 1 1.0 0 48.879 0
857 1 1 1.0 5.431 48.879 0
858 1 1 1.0 0 48.879 5.431
859 1 1 1.0 5.431 48.879 5.431
860 1 1 1.0 2.7155 46.163 0
861 1 1 1.0 5.431 46.163 2.7155
862 1 1 1.0 2.7155 48.879 2.7155
863 1 1 1.0 0 46.163 2.7155
864 1 1 1.0 2.7155 46.163 5.431
865 1 1 1.0 1.3578 44.806 1.3578
866 1 1 1.0 4.0732 47.521 1.3578
867 1 1 1.0 4.0732 44.806 4.0732
868 1 1 1.0 1.3578 47.521 4.0732
869 1 1 1.0 0 48.879 10.862
870 1 1 1.0 5.431 48.879 10.862
871 1 1 1.0 5.431 46.163 8.1465
872 1 1 1.0 2.7155 48.879 8.1465
873 1 1 1.0 0 46.163 8.1465
874 1 1 1.0 2.7155 46.163 10.862
875 1 1 1.0 1.3578 44.806 6.7888
876 1 1 1.0 4.0732 47.521 6.7888
877 1 1 1.0 4.0732 44.806 9.5042
878 1 1 1.0 1.3578 47.521 9.5042
879 1 1 1.0 0 48.879 16.293
880 1 1 1.0 5.431 48.879 16.293
881 1 1 1.0 5.431 46.163 13.578
882 1 1 1.0 2.7155 48.879 13.578
883 1 1 1.0 0 46.163 13.578
884 1 1 1.0 2.7155 46.163 16.293
885 1 1 1.0 1.3578 44.806 12.22
886 1 1 1.0 4.0732 47.521 12.22
887 1 1 1.0 4.0732 44.806 14.935
888 1 1 1.0 1.3578 47.521 14.935
889 1 1 1.0 0 48.879 21.724
890 1 1 1.0 5.431 48.879 21.724
891 1 1 1.0 5.431 46.163 19.008
892 1 1 1.0 2.7155 48.879 19.008
893 1 1 1.0 0 46.163 19.008
894 1 1 1.0 2.7155 46.163 21.724
895 1 1 1.0 1.3578 44.806 17.651
896 1 1 1.0 4.0732 47.521 17.651
897 1 1 1.0 4.0732 44.806 20.366
898 1 1 1.0 1.3578 47.521 20.366
899 1 1 1.0 0 48.879 27.155
900 1 1 1.0 5.431 48.879 27.155
901 1 1 1.0 5.431 46.163 24.439
902 1 1 1.0 2.7155 48.879 24.439
903 1 1 1.0 0 46.163 24.439
904 1 1 1.0 2.7155 46.163 27.155
905 1 1 1.0 1.3578 44.806 23.082
906 1 1 1.0 4.0732 47.521 23.082
907 1 1 1.0 4.0732 44.806 25.797
908 1 1 1.0 1.3578 47.521 25.797
909 1 1 1.0 0 48.879 32.586
910 1 1 1.0 5.431 48.879 32.586
911 1 1 1.0 5.431 46.163 29.87
912 1 1 1.0 2.7155 48.879 29.87
913 1 1 1.0 0 46.163 29.87
914 1 1 1.0 2.7155 46.163 32.586
915 1 1 1.0 1.3578 44.806 28.513
916 1 1 1.0 4.0732 47.521 28.513
917 1 1 1.0 4.0732 44.806 31.228
918 1 1 1.0 1.3578 47.521 31.228
919 1 1 1.0 0 48.879 38.017
920 1 1 1.0 5.431 48.879 38.017
921 1 1 1.0 5.431 46.163 35.301
922 1 1 1.0 2.7155 48.879 35.301
923 1 1 1.0 0 46.163 35.301
924 1 1 1.0 2.7155 46.163 38.017
925 1 1 1.0 1.3578 44.806 33.944
926 1 1 1.0 4.0732 47.521 33.944
927 1 1 1.0 4.0732 44.806 36.659
928 1 1 1.0 1.3578 47.521 36.659
929 1 1 1.0 0 48.879 43.448
930 1 1 1.0 5.431 48.879 43.448
931 1 1 1.0 5.431 46.163 40.733
932 1 1 1.0 2.7155 48.879 40.733
933 1 1 1.0 0 46.163 40.733
934 1 1 1.0 2.7155 46.163 43.448
935 1 1 1.0 1.3578 44.806 39.375
936 1 1 1.0 4.0732 47.521 39.375
937 1 1 1.0 4.0732 44.806 42.09
938 1 1 1.0 1.3578 47.521 42.09
939 1 1 1.0 0 48.879 48.879
940 1 1 1.0 5.431 48.879 48.879
941 1 1 1.0 5.431 46.163 46.163
942 1 1 1.0 2.7155 48.879 46.163
943 1 1 1.0 0 46.163 46.163
944 1 1 1.0 2.7155 46.163 48.879
945 1 1 1.0 1.3578 44.806 44.806
946 1 1 1.0 4.0732 47.521 44.806
947 1 1 1.0 4.0732 44.806 47.521
948 1 1 1.0 1.3578 47.521 47.521
949 1 1 1.0 0 48.879 54.31
950 1 1 1.0 5.431 48.879 54.31
951 1 1 1.0 5.431 46.163 51.594
952 1 1 1.0 2.7155 48.879 51.594
953 1 1 1.0 0 46.163 51.594
954 1 1 1.0 2.7155 46.163 54.31
955 1 1 1.0 1.3578 44.806 50.237
956 1 1 1.0 4.0732 47.521 50.237
957 1 1 1.0 4.0732 44.806 52.952