ITEM: TIMESTEP
0
ITEM: NUMBER OF ATOMS
2092
ITEM: BOX BOUNDS mm mm pp
0.0 1.0
0.0 1.0
0.0 1.0
ITEM: ATOMS id type x y z
0 4 0 0 0
1 4 5.431 0 0
2 4 0 5.431 0
3 4 0 0 5.431
4 4 5.431 5.431 0
5 4 5.431 0 5.431
6 4 0 5.431 5.431
7 4 5.431 5.431 5.431
8 4 2.7155 2.7155 0
9 4 5.431 2.7155 2.7155
10 4 2.7155 0 2.7155
11 4 2.7155 5.431 2.7155
12 4 0 2.7155 2.7155
13 4 2.7155 2.7155 5.431
14 4 1.3578 1.3578 1.3578
15 4 4.0732 4.0732 1.3578
16 4 4.0732 1.3578 4.0732
17 4 1.3578 4.0732 4.0732
18 4 0 0 10.862
19 4 5.431 0 10.862
20 4 0 5.431 10.862
21 4 5.431 5.431 10.862
22 4 5.431 2.7155 8.1465
23 4 2.7155 0 8.1465
24 4 2.7155 5.431 8.1465
25 4 0 2.7155 8.1465
26 4 2.7155 2.7155 10.862
27 4 1.3578 1.3578 6.7888
28 4 4.0732 4.0732 6.7888
29 4 4.0732 1.3578 9.5042
30 4 1.3578 4.0732 9.5042
31 4 0 0 16.293
32 4 5.431 0 16.293
33 4 0 5.431 16.293
34 4 5.431 5.431 16.293
35 4 5.431 2.7155 13.578
36 4 2.7155 0 13.578
37 4 2.7155 5.431 13.578
38 4 0 2.7155 13.578
39 4 2.7155 2.7155 16.293
40 4 1.3578 1.3578 12.22
41 4 4.0732 4.0732 12.22
42 4 4.0732 1.3578 14.935
43 4 1.3578 4.0732 14.935
44 4 0 0 21.724
45 4 5.431 0 21.724
46 4 0 5.431 21.724
47 4 5.431 5.431 21.724
48 4 5.431 2.7155 19.008
49 4 2.7155 0 19.008
50 4 2.7155 5.431 19.008
51 4 0 2.7155 19.008
52 4 2.7155 2.7155 21.724
53 4 1.3578 1.3578 17.651
54 4 4.0732 4.0732 17.651
55 4 4.0732 1.3578 20.366
56 4 1.3578 4.0732 20.366
57 4 0 0 27.155
58 4 5.431 0 27.155
59 4 0 5.431 27.155
60 4 5.431 5.431 27.155
61 4 5.431 2.7155 24.439
62 4 2.7155 0 24.439
63 4 2.7155 5.431 24.439
64 4 0 2.7155 24.439
65 4 2.7155 2.7155 27.155
66 4 1.3578 1.3578 23.082
67 4 4.0732 4.0732 23.082
68 4 4.0732 1.3578 25.797
69 4 1.3578 4.0732 25.797
70 4 0 0 32.586
71 4 5.431 0 32.586
72 4 0 5.431 32.586
73 4 5.431 5.431 32.586
74 4 5.431 2.7155 29.87
75 4 2.7155 0 29.87
76 4 2.7155 5.431 29.87
77 4 0 2.7155 29.87
78 4 2.7155 2.7155 32.586
79 4 1.3578 1.3578 28.513
80 4 4.0732 4.0732 28.513
81 4 4.0732 1.3578 31.228
82 4 1.3578 4.0732 31.228
83 4 0 0 38.017
84 4 5.431 0 38.017
85 4 0 5.431 38.017
86 4 5.431 5.431 38.017
87 4 5.431 2.7155 35.301
88 4 2.7155 0 35.301
89 4 2.7155 5.431 35.301
90 4 0 2.7155 35.301
91 4 2.7155 2.7155 38.017
92 4 1.3578 1.3578 33.944
93 4 4.0732 4.0732 33.944
94 4 4.0732 1.3578 36.659
95 4 1.3578 4.0732 36.659
96 4 0 0 43.448
97 4 5.431 0 43.448
98 4 0 5.431 43.448
99 4 5.431 5.431 43.448
100 4 5.431 2.7155 40.733
101 4 2.7155 0 40.733
102 4 2.7155 5.431 40.733
103 4 0 2.7155 40.733
104 4 2.7155 2.7155 43.448
105 4 1.3578 1.3578 39.375
106 4 4.0732 4.0732 39.375
107 4 4.0732 1.3578 42.09
108 4 1.3578 4.0732 42.09
109 4 0 0 48.879
110 4 5.431 0 48.879
111 4 0 5.431 48.879
112 4 5.431 5.431 48.879
113 4 5.431 2.7155 46.163
114 4 2.7155 0 46.163
115 4 2.7155 5.431 46.163
116 4 0 2.7155 46.163
117 4 2.7155 2.7155 48.879
118 4 1.3578 1.3578 44.806
119 4 4.0732 4.0732 44.806
120 4 4.0732 1.3578 47.521
121 4 1.3578 4.0732 47.521
122 4 0 0 54.31
123 4 5.431 0 54.31
124 4 0 5.431 54.31
125 4 5.431 5.431 54.31
126 4 5.431 2.7155 51.594
127 4 2.7155 0 51.594
128 4 2.7155 5.431 51.594
129 4 0 2.7155 51.594
130 4 2.7155 2.7155 54.31
131 4 1.3578 1.3578 50.237
132 4 4.0732 4.0732 50.237
133 4 4.0732 1.3578 52.952
134 4 1.3578 4.0732 52.952
135 4 0 10.862 0
136 4 5.431 10.862 0
137 4 0 10.862 5.431
138 4 5.431 10.862 5.431
139 4 2.7155 8.1465 0
140 4 5.431 8.1465 2.7155
141 4 2.7155 10.862 2.7155
142 4 0 8.1465 2.7155
143 4 2.7155 8.1465 5.431
144 4 1.3578 6.7888 1.3578
145 4 4.0732 9.5042 1.3578
146 4 4.0732 6.7888 4.0732
147 4 1.3578 9.5042 4.0732
148 4 0 10.862 10.862
149 4 5.431 10.862 10.862
150 4 5.431 8.1465 8.1465
151 4 2.7155 10.862 8.1465
152 4 0 8.1465 8.1465
153 4 2.7155 8.1465 10.862
154 4 1.3578 6.7888 6.7888
155 4 4.0732 9.5042 6.7888
156 4 4.0732 6.7888 9.5042
157 4 1.3578 9.5042 9.5042
158 4 0 10.862 16.293
159 4 5.431 10.862 16.293
160 4 5.431 8.1465 13.578
161 4 2.7155 10.862 13.578
162 4 0 8.1465 13.578
163 4 2.7155 8.1465 16.293
164 4 1.3578 6.7888 12.22
165 4 4.0732 9.5042 12.22
166 4 4.0732 6.7888 14.935
167 4 1.3578 9.5042 14.935
168 4 0 10.862 21.724
169 4 5.431 10.862 21.724
170 4 5.431 8.1465 19.008
171 4 2.7155 10.862 19.008
172 4 0 8.1465 19.008
173 4 2.7155 8.1465 21.724
174 4 1.3578 6.7888 17.651
175 4 4.0732 9.5042 17.651
176 4 4.0732 6.7888 20.366
177 4 1.3578 9.5042 20.366
178 4 0 10.862 27.155
179 4 5.431 10.862 27.155
180 4 5.431 8.1465 24.439
181 4 2.7155 10.862 24.439
182 4 0 8.1465 24.439
183 4 2.7155 8.1465 27.155
184 4 1.3578 6.7888 23.082
185 4 4.0732 9.5042 23.082
186 4 4.0732 6.7888 25.797
187 4 1.3578 9.5042 25.797
188 4 0 10.862 32.586
189 4 5.431 10.862 32.586
190 4 5.431 8.1465 29.87
191 4 2.7155 10.862 29.87
192 4 0 8.1465 29.87
193 4 2.7155 8.1465 32.586
194 4 1.3578 6.7888 28.513
195 4 4.0732 9.5042 28.513
196 4 4.0732 6.7888 31.228
197 4 1.3578 9.5042 31.228
198 4 0 10.862 38.017
199 4 5.431 10.862 38.017
200 4 5.431 8.1465 35.301
201 4 2.7155 10.862 35.301
202 4 0 8.1465 35.301
203 4 2.7155 8.1465 38.017
204 4 1.3578 6.7888 33.944
205 4 4.0732 9.5042 33.944
206 4 4.0732 6.7888 36.659
207 4 1.3578 9.5042 36.659
208 4 0 10.862 43.448
209 4 5.431 10.862 43.448
210 4 5.431 8.1465 40.733
211 4 2.7155 10.862 40.733
212 4 0 8.1465 40.733
213 4 2.7155 8.1465 43.448
214 4 1.3578 6.7888 39.375
215 4 4.0732 9.5042 39.375
216 4 4.0732 6.7888 42.09
217 4 1.3578 9.5042 42.09
218 4 0 10.862 48.879
219 4 5.431 10.862 48.879
220 4 5.431 8.1465 46.163
221 4 2.7155 10.862 46.163
222 4 0 8.1465 46.163
223 4 2.7155 8.1465 48.879
224 4 1.3578 6.7888 44.806
225 4 4.0732 9.5042 44.806
226 4 4.0732 6.7888 47.521
227 4 1.3578 9.5042 47.521
228 4 0 10.862 54.31
229 4 5.431 10.862 54.31
230 4 5.431 8.1465 51.594
231 4 2.7155 10.862 51.594
232 4 0 8.1465 51.594
233 4 2.7155 8.1465 54.31
234 4 1.3578 6.7888 50.237
235 4 4.0732 9.5042 50.237
236 4 4.0732 6.7888 52.952
237 4 1.3578 9.5042 52.952
238 4 0 16.293 0
239 4 5.431 16.293 0
240 4 0 16.293 5.431
241 4 5.431 16.293 5.431
242 4 2.7155 13.578 0
243 4 5.431 13.578 2.7155
244 4 2.7155 16.293 2.7155
245 4 0 13.578 2.7155
246 4 2.7155 13.578 5.431
247 4 1.3578 12.22 1.3578
248 4 4.0732 14.935 1.3578
249 4 4.0732 12.22 4.0732
250 4 1.3578 14.935 4.0732
251 4 0 16.293 10.862
252 4 5.431 16.293 10.862
253 4 5.431 13.578 8.1465
254 4 2.7155 16.293 8.1465
255 4 0 13.578 8.1465
256 4 2.7155 13.578 10.862
257 4 1.3578 12.22 6.7888
258 4 4.0732 14.935 6.7888
259 4 4.0732 12.22 9.5042
260 4 1.3578 14.935 9.5042
261 4 0 16.293 16.293
262 4 5.431 16.293 16.293
263 4 5.431 13.578 13.578
264 4 2.7155 16.293 13.578
265 4 0 13.578 13.578
266 4 2.7155 13.578 16.293
267 4 1.3578 12.22 12.22
268 4 4.0732 14.935 12.22
269 4 4.0732 12.22 14.935
270 4 1.3578 14.935 14.935
271 4 0 16.293 21.724
272 4 5.431 16.293 21.724
273 4 5.431 13.578 19.008
274 4 2.7155 16.293 19.008
275 4 0 13.578 19.008
276 4 2.7155 13.578 21.724
277 4 1.3578 12.22 17.651
278 4 4.0732 14.935 17.651
279 4 4.0732 12.22 20.366
280 4 1.3578 14.935 20.366
281 4 0 16.293 27.155
282 4 5.431 16.293 27.155
283 4 5.431 13.578 24.439
284 4 2.7155 16.293 24.439
285 4 0 13.578 24.439
286 4 2.7155 13.578 27.155
287 4 1.3578 12.22 23.082
288 4 4.0732 14.935 23.082
289 4 4.0732 12.22 25.797
290 4 1.3578 14.935 25.797
291 4 0 16.293 32.586
292 4 5.431 16.293 32.586
293 4 5.431 13.578 29.87
294 4 2.7155 16.293 29.87
295 4 0 13.578 29.87
296 4 2.7155 13.578 32.586
297 4 1.3578 12.22 28.513
298 4 4.0732 14.935 28.513
299 4 4.0732 12.22 31.228
300 4 1.3578 14.935 31.228
301 4 0 16.293 38.017
302 4 5.431 16.293 38.017
303 4 5.431 13.578 35.301
304 4 2.7155 16.293 35.301
305 4 0 13.578 35.301
306 4 2.7155 13.578 38.017
307 4 1.3578 12.22 33.944
308 4 4.0732 14.935 33.944
309 4 4.0732 12.22 36.659
310 4 1.3578 14.935 36.659
311 4 0 16.293 43.448
312 4 5.431 16.293 43.448
313 4 5.431 13.578 40.733
314 4 2.7155 16.293 40.733
315 4 0 13.578 40.733
316 4 2.7155 13.578 43.448
317 4 1.3578 12.22 39.375
318 4 4.0732 14.935 39.375
319 4 4.0732 12.22 42.09
320 4 1.3578 14.935 42.09
321 4 0 16.293 48.879
322 4 5.431 16.293 48.879
323 4 5.431 13.578 46.163
324 4 2.7155 16.293 46.163
325 4 0 13.578 46.163
326 4 2.7155 13.578 48.879
327 4 1.3578 12.22 44.806
328 4 4.0732 14.935 44.806
329 4 4.0732 12.22 47.521
330 4 1.3578 14.935 47.521
331 4 0 16.293 54.31
332 4 5.431 16.293 54.31
333 4 5.431 13.578 51.594
334 4 2.7155 16.293 51.594
335 4 0 13.578 51.594
336 4 2.7155 13.578 54.31
337 4 1.3578 12.22 50.237
338 4 4.0732 14.935 50.237
339 4 4.0732 12.22 52.952
340 4 1.3578 14.935 52.952
341 4 0 21.724 0
342 4 5.431 21.724 0
343 4 0 21.724 5.431
344 4 5.431 21.724 5.431
345 4 2.7155 19.008 0
346 4 5.431 19.008 2.7155
347 4 2.7155 21.724 2.7155
348 4 0 19.008 2.7155
349 4 2.7155 19.008 5.431
350 4 1.3578 17.651 1.3578
351 4 4.0732 20.366 1.3578
352 4 4.0732 17.651 4.0732
353 4 1.3578 20.366 4.0732
354 4 0 21.724 10.862
355 4 5.431 21.724 10.862
356 4 5.431 19.008 8.1465
357 4 2.7155 21.724 8.1465
358 4 0 19.008 8.1465
359 4 2.7155 19.008 10.862
360 4 1.3578 17.651 6.7888
361 4 4.0732 20.366 6.7888
362 4 4.0732 17.651 9.5042
363 4 1.3578 20.366 9.5042
364 4 0 21.724 16.293
365 4 5.431 21.724 16.293
366 4 5.431 19.008 13.578
367 4 2.7155 21.724 13.578
368 4 0 19.008 13.578
369 4 2.7155 19.008 16.293
370 4 1.3578 17.651 12.22
371 4 4.0732 20.366 12.22
372 4 4.0732 17.651 14.935
373 4 1.3578 20.366 14.935
374 4 0 21.724 21.724
375 4 5.431 21.724 21.724
376 4 5.431 19.008 19.008
377 4 2.7155 21.724 19.008
378 4 0 19.008 19.008
379 4 2.7155 19.008 21.724
380 4 1.3578 17.651 17.651
381 4 4.0732 20.366 17.651
382 4 4.0732 17.651 20.366
383 4 1.3578 20.366 20.366
384 4 0 21.724 27.155
385 4 5.431 21.724 27.155
386 4 5.431 19.008 24.439
387 4 2.7155 21.724 24.439
388 4 0 19.008 24.439
389 4 2.7155 19.008 27.155
390 4 1.3578 17.651 23.082
391 4 4.0732 20.366 23.082
392 4 4.0732 17.651 25.797
393 4 1.3578 20.366 25.797
394 4 0 21.724 32.586
395 4 5.431 21.724 32.586
396 4 5.431 19.008 29.87
397 4 2.7155 21.724 29.87
398 4 0 19.008 29.87
399 4 2.7155 19.008 32.586
400 4 1.3578 17.651 28.513
401 4 4.0732 20.366 28.513
402 4 4.0732 17.651 31.228
403 4 1.3578 20.366 31.228
404 4 0 21.724 38.017
405 4 5.431 21.724 38.017
406 4 5.431 19.008 35.301
407 4 2.7155 21.724 35.301
408 4 0 19.008 35.301
409 4 2.7155 19.008 38.017
410 4 1.3578 17.651 33.944
411 4 4.0732 20.366 33.944
412 4 4.0732 17.651 36.659
413 4 1.3578 20.366 36.659
414 4 0 21.724 43.448
415 4 5.431 21.724 43.448
416 4 5.431 19.008 40.733
417 4 2.7155 21.724 40.733
418 4 0 19.008 40.733
419 4 2.7155 19.008 43.448
420 4 1.3578 17.651 39.375
421 4 4.0732 20.366 39.375
422 4 4.0732 17.651 42.09
423 4 1.3578 20.366 42.09
424 4 0 21.724 48.879
425 4 5.431 21.724 48.879
426 4 5.431 19.008 46.163
427 4 2.7155 21.724 46.163
428 4 0 19.008 46.163
429 4 2.7155 19.008 48.879
430 4 1.3578 17.651 44.806
431 4 4.0732 20.366 44.806
432 4 4.0732 17.651 47.521
433 4 1.3578 20.366 47.521
434 4 0 21.724 54.31
435 4 5.431 21.724 54.31
436 4 5.431 19.008 51.594
437 4 2.7155 21.724 51.594
438 4 0 19.008 51.594
439 4 2.7155 19.008 54.31
440 4 1.3578 17.651 50.237
441 4 4.0732 20.366 50.237
442 4 4.0732 17.651 52.952
443 4 1.3578 20.366 52.952
444 4 0 27.155 0
445 4 5.431 27.155 0
446 4 0 27.155 5.431
447 4 5.431 27.155 5.431
448 4 2.7155 24.439 0
449 4 5.431 24.439 2.7155
450 4 2.7155 27.155 2.7155
451 4 0 24.439 2.7155
452 4 2.7155 24.439 5.431
453 4 1.3578 23.082 1.3578
454 4 4.0732 25.797 1.3578
455 4 4.0732 23.082 4.0732
456 4 1.3578 25.797 4.0732
457 4 0 27.155 10.862
458 4 5.431 27.155 10.862
459 4 5.431 24.439 8.1465
460 4 2.7155 27.155 8.1465
461 4 0 24.439 8.1465
462 4 2.7155 24.439 10.862
463 4 1.3578 23.082 6.7888
464 4 4.0732 25.797 6.7888
465 4 4.0732 23.082 9.5042
466 4 1.3578 25.797 9.5042
467 4 0 27.155 16.293
468 4 5.431 27.155 16.293
469 4 5.431 24.439 13.578
470 4 2.7155 27.155 13.578
471 4 0 24.439 13.578
472 4 2.7155 24.439 16.293
473 4 1.3578 23.082 12.22
474 4 4.0732 25.797 12.22
475 4 4.0732 23.082 14.935
476 4 1.3578 25.797 14.935
477 4 0 27.155 21.724
478 4 5.431 27.155 21.724
479 4 5.431 24.439 19.008
480 4 2.7155 27.155 19.008
481 4 0 24.439 19.008
482 4 2.7155 24.439 21.724
483 4 1.3578 23.082 17.651
484 4 4.0732 25.797 17.651
485 4 4.0732 23.082 20.366
486 4 1.3578 25.797 20.366
487 4 0 27.155 27.155
488 4 5.431 27.155 27.155
489 4 5.431 24.439 24.439
490 4 2.7155 27.155 24.439
491 4 0 24.439 24.439
492 4 2.7155 24.439 27.155
493 4 1.3578 23.082 23.082
494 4 4.0732 25.797 23.082
495 4 4.0732 23.082 25.797
496 4 1.3578 25.797 25.797
497 4 0 27.155 32.586
498 4 5.431 27.155 32.586
499 4 5.431 24.439 29.87
500 4 2.7155 27.155 29.87
501 4 0 24.439 29.87
502 4 2.7155 24.439 32.586
503 4 1.3578 23.082 28.513
504 4 4.0732 25.797 28.513
505 4 4.0732 23.082 31.228
506 4 1.3578 25.797 31.228
507 4 0 27.155 38.017
508 4 5.431 27.155 38.017
509 4 5.431 24.439 35.301
510 4 2.7155 27.155 35.301
511 4 0 24.439 35.301
512 4 2.7155 24.439 38.017
513 4 1.3578 23.082 33.944
514 4 4.0732 25.797 33.944
515 4 4.0732 23.082 36.659
516 4 1.3578 25.797 36.659
517 4 0 27.155 43.448
518 4 5.431 27.155 43.448
519 4 5.431 24.439 40.733
520 4 2.7155 27.155 40.733
521 4 0 24.439 40.733
522 4 2.7155 24.439 43.448
523 4 1.3578 23.082 39.375
524 4 4.0732 25.797 39.375
525 4 4.0732 23.082 42.09
526 4 1.3578 25.797 42.09
527 4 0 27.155 48.879
528 4 5.431 27.155 48.879
529 4 5.431 24.439 46.163
530 4 2.7155 27.155 46.163
531 4 0 24.439 46.163
532 4 2.7155 24.439 48.879
533 4 1.3578 23.082 44.806
534 4 4.0732 25.797 44.806
535 4 4.0732 23.082 47.521
536 4 1.3578 25.797 47.521
537 4 0 27.155 54.31
538 4 5.431 27.155 54.31
539 4 5.431 24.439 51.594
540 4 2.7155 27.155 51.594
541 4 0 24.439 51.594
542 4 2.7155 24.439 54.31
543 4 1.3578 23.082 50.237
544 4 4.0732 25.797 50.237
545 4 4.0732 23.082 52.952
546 4 1.3578 25.797 52.952
547 4 0 32.586 0
548 4 5.431 32.586 0
549 4 0 32.586 5.431
550 4 5.431 32.586 5.431
551 4 2.7155 29.87 0
552 4 5.431 29.87 2.7155
553 4 2.7155 32.586 2.7155
554 4 0 29.87 2.7155
555 4 2.7155 29.87 5.431
556 4 1.3578 28.513 1.3578
557 4 4.0732 31.228 1.3578
558 4 4.0732 28.513 4.0732
559 4 1.3578 31.228 4.0732
560 4 0 32.586 10.862
561 4 5.431 32.586 10.862
562 4 5.431 29.87 8.1465
563 4 2.7155 32.586 8.1465
564 4 0 29.87 8.1465
565 4 2.7155 29.87 10.862
566 4 1.3578 28.513 6.7888
567 4 4.0732 31.228 6.7888
568 4 4.0732 28.513 9.5042
569 4 1.3578 31.228 9.5042
570 4 0 32.586 16.293
571 4 5.431 32.586 16.293
572 4 5.431 29.87 13.578
573 4 2.7155 32.586 13.578
574 4 0 29.87 13.578
575 4 2.7155 29.87 16.293
576 4 1.3578 28.513 12.22
577 4 4.0732 31.228 12.22
578 4 4.0732 28.513 14.935
579 4 1.3578 31.228 14.935
580 4 0 32.586 21.724
581 4 5.431 32.586 21.724
582 4 5.431 29.87 19.008
583 4 2.7155 32.586 19.008
584 4 0 29.87 19.008
585 4 2.7155 29.87 21.724
586 4 1.3578 28.513 17.651
587 4 4.0732 31.228 17.651
588 4 4.0732 28.513 20.366
589 4 1.3578 31.228 20.366
590 4 0 32.586 27.155
591 4 5.431 32.586 27.155
592 4 5.431 29.87 24.439
593 4 2.7155 32.586 24.439
594 4 0 29.87 24.439
595 4 2.7155 29.87 27.155
596 4 1.3578 28.513 23.082
597 4 4.0732 31.228 23.082
598 4 4.0732 28.513 25.797
599 4 1.3578 31.228 25.797
600 4 0 32.586 32.586
601 4 5.431 32.586 32.586
602 4 5.431 29.87 29.87
603 4 2.7155 32.586 29.87
604 4 0 29.87 29.87
605 4 2.7155 29.87 32.586
606 4 1.3578 28.513 28.513
607 4 4.0732 31.228 28.513
608 4 4.0732 28.513 31.228
609 4 1.3578 31.228 31.228
610 4 0 32.586 38.017
611 4 5.431 32.586 38.017
612 4 5.431 29.87 35.301
613 4 2.7155 32.586 35.301
614 4 0 29.87 35.301
615 4 2.7155 29.87 38.017
616 4 1.3578 28.513 33.944
617 4 4.0732 31.228 33.944
618 4 4.0732 28.513 36.659
619 4 1.3578 31.228 36.659
620 4 0 32.586 43.448
621 4 5.431 32.586 43.448
622 4 5.431 29.87 40.733
623 4 2.7155 32.586 40.733
624 4 0 29.87 40.733
625 4 2.7155 29.87 43.448
626 4 1.3578 28.513 39.375
627 4 4.0732 31.228 39.375
628 4 4.0732 28.513 42.09
629 4 1.3578 31.228 42.09
630 4 0 32.586 48.879
631 4 5.431 32.586 48.879
632 4 5.431 29.87 46.163
633 4 2.7155 32.586 46.163
634 4 0 29.87 46.163
635 4 2.7155 29.87 48.879
636 4 1.3578 28.513 44.806
637 4 4.0732 31.228 44.806
638 4 4.0732 28.513 47.521
639 4 1.3578 31.228 47.521
640 4 0 32.586 54.31
641 4 5.431 32.586 54.31
642 4 5.431 29.87 51.594
643 4 2.7155 32.586 51.594
644 4 0 29.87 51.594
645 4 2.7155 29.87 54.31
646 4 1.3578 28.513 50.237
647 4 4.0732 31.228 50.237
648 4 4.0732 28.513 52.952
649 4 1.3578 31.228 52.952
650 4 0 38.017 0
651 4 5.431 38.017 0
652 4 0 38.017 5.431
653 4 5.431 38.017 5.431
654 4 2.7155 35.301 0
655 4 5.431 35.301 2.7155
656 4 2.7155 38.017 2.7155
657 4 0 35.301 2.7155
658 4 2.7155 35.301 5.431
659 4 1.3578 33.944 1.3578
660 4 4.0732 36.659 1.3578
661 4 4.0732 33.944 4.0732
662 4 1.3578 36.659 4.0732
663 4 0 38.017 10.862
664 4 5.431 38.017 10.862
665 4 5.431 35.301 8.1465
666 4 2.7155 38.017 8.1465
667 4 0 35.301 8.1465
668 4 2.7155 35.301 10.862
669 4 1.3578 33.944 6.7888
670 4 4.0732 36.659 6.7888
671 4 4.0732 33.944 9.5042
672 4 1.3578 36.659 9.5042
673 4 0 38.017 16.293
674 4 5.431 38.017 16.293
675 4 5.431 35.301 13.578
676 4 2.7155 38.017 13.578
677 4 0 35.301 13.578
678 4 2.7155 35.301 16.293
679 4 1.3578 33.944 12.22
680 4 4.0732 36.659 12.22
681 4 4.0732 33.944 14.935
682 4 1.3578 36.659 14.935
683 4 0 38.017 21.724
684 4 5.431 38.017 21.724
685 4 5.431 35.301 19.008
686 4 2.7155 38.017 19.008
687 4 0 35.301 19.008
688 4 2.7155 35.301 21.724
689 4 1.3578 33.944 17.651
690 4 4.0732 36.659 17.651
691 4 4.0732 33.944 20.366
692 4 1.3578 36.659 20.366
693 4 0 38.017 27.155
694 4 5.431 38.017 27.155
695 4 5.431 35.301 24.439
696 4 2.7155 38.017 24.439
697 4 0 35.301 24.439
698 4 2.7155 35.301 27.155
699 4 1.3578 33.944 23.082
700 4 4.0732 36.659 23.082
701 4 4.0732 33.944 25.797
702 4 1.3578 36.659 25.797
703 4 0 38.017 32.586
704 4 5.431 38.017 32.586
705 4 5.431 35.301 29.87
706 4 2.7155 38.017 29.87
707 4 0 35.301 29.87
708 4 2.7155 35.301 32.586
709 4 1.3578 33.944 28.513
710 4 4.0732 36.659 28.513
711 4 4.0732 33.944 31.228
712 4 1.3578 36.659 31.228
713 4 0 38.017 38.017
714 4 5.431 38.017 38.017
715 4 5.431 35.301 35.301
716 4 2.7155 38.017 35.301
717 4 0 35.301 35.301
718 4 2.7155 35.301 38.017
719 4 1.3578 33.944 33.944
720 4 4.0732 36.659 33.944
721 4 4.0732 33.944 36.659
722 4 1.3578 36.659 36.659
723 4 0 38.017 43.448
724 4 5.431 38.017 43.448
725 4 5.431 35.301 40.733
726 4 2.7155 38.017 40.733
727 4 0 35.301 40.733
728 4 2.7155 35.301 43.448
729 4 1.3578 33.944 39.375
730 4 4.0732 36.659 39.375
731 4 4.0732 33.944 42.09
732 4 1.3578 36.659 42.09
733 4 0 38.017 48.879
734 4 5.431 38.017 48.879
735 4 5.431 35.301 46.163
736 4 2.7155 38.017 46.163
737 4 0 35.301 46.163
738 4 2.7155 35.301 48.879
739 4 1.3578 33.944 44.806
740 4 4.0732 36.659 44.806
741 4 4.0732 33.944 47.521
742 4 1.3578 36.659 47.521
743 4 0 38.017 54.31
744 4 5.431 38.017 54.31
745 4 5.431 35.301 51.594
746 4 2.7155 38.017 51.594
747 4 0 35.301 51.594
748 4 2.7155 35.301 54.31
749 4 1.3578 33.944 50.237
750 4 4.0732 36.659 50.237
751 4 4.0732 33.944 52.952
752 4 1.3578 36.659 52.952
753 4 0 43.448 0
754 4 5.431 43.448 0
755 4 0 43.448 5.431
756 4 5.431 43.448 5.431
757 4 2.7155 40.733 0
758 4 5.431 40.733 2.7155
759 4 2.7155 43.448 2.7155
760 4 0 40.733 2.7155
761 4 2.7155 40.733 5.431
762 4 1.3578 39.375 1.3578
763 4 4.0732 42.09 1.3578
764 4 4.0732 39.375 4.0732
765 4 1.3578 42.09 4.0732
766 4 0 43.448 10.862
767 4 5.431 43.448 10.862
768 4 5.431 40.733 8.1465
769 4 2.7155 43.448 8.1465
770 4 0 40.733 8.1465
771 4 2.7155 40.733 10.862
772 4 1.3578 39.375 6.7888
773 4 4.0732 42.09 6.7888
774 4 4.0732 39.375 9.5042
775 4 1.3578 42.09 9.5042
776 4 0 43.448 16.293
777 4 5.431 43.448 16.293
778 4 5.431 40.733 13.578
779 4 2.7155 43.448 13.578
780 4 0 40.733 13.578
781 4 2.7155 40.733 16.293
782 4 1.3578 39.375 12.22
783 4 4.0732 42.09 12.22
784 4 4.0732 39.375 14.935
785 4 1.3578 42.09 14.935
786 4 0 43.448 21.724
787 4 5.431 43.448 21.724
788 4 5.431 40.733 19.008
789 4 2.7155 43.448 19.008
790 4 0 40.733 19.008
791 4 2.7155 40.733 21.724
792 4 1.3578 39.375 17.651
793 4 4.0732 42.09 17.651
794 4 4.0732 39.375 20.366
795 4 1.3578 42.09 20.366
796 4 0 43.448 27.155
797 4 5.431 43.448 27.155
798 4 5.431 40.733 24.439
799 4 2.7155 43.448 24.439
800 4 0 40.733 24.439
801 4 2.7155 40.733 27.155
802 4 1.3578 39.375 23.082
803 4 4.0732 42.09 23.082
804 4 4.0732 39.375 25.797
805 4 1.3578 42.09 25.797
806 4 0 43.448 32.586
807 4 5.431 43.448 32.586
808 4 5.431 40.733 29.87
809 4 2.7155 43.448 29.87
810 4 0 40.733 29.87
811 4 2.7155 40.733 32.586
812 4 1.3578 39.375 28.513
813 4 4.0732 42.09 28.513
814 4 4.0732 39.375 31.228
815 4 1.3578 42.09 31.228
816 4 0 43.448 38.017
817 4 5.431 43.448 38.017
818 4 5.431 40.733 35.301
819 4 2.7155 43.448 35.301
820 4 0 40.733 35.301
821 4 2.7155 40.733 38.017
822 4 1.3578 39.375 33.944
823 4 4.0732 42.09 33.944
824 4 4.0732 39.375 36.659
825 4 1.3578 42.09 36.659
826 4 0 43.448 43.448
827 4 5.431 43.448 43.448
828 4 5.431 40.733 40.733
829 4 2.7155 43.448 40.733
830 4 0 40.733 40.733
831 4 2.7155 40.733 43.448
832 4 1.3578 39.375 39.375
833 4 4.0732 42.09 39.375
834 4 4.0732 39.375 42.09
835 4 1.3578 42.09 42.09
836 4 0 43.448 48.879
837 4 5.431 43.448 48.879
838 4 5.431 40.733 46.163
839 4 2.7155 43.448 46.163
840 4 0 40.733 46.163
841 4 2.7155 40.733 48.879
842 4 1.3578 39.375 44.806
843 4 4.0732 42.09 44.806
844 4 4.0732 39.375 47.521
845 4 1.3578 42.09 47.521
846 4 0 43.448 54.31
847 4 5.431 43.448 54.31
848 4 5.431 40.733 51.594
849 4 2.7155 43.448 51.594
850 4 0 40.733 51.594
851 4 2.7155 40.733 54.31
852 4 1.3578 39.375 50.237
853 4 4.0732 42.09 50.237
854 4 4.0732 39.375 52.952
855 4 1.3578 42.09 52.952
856 4 0 48.879 0
857 4 5.431 48.879 0
858 4 0 48.879 5.431
859 4 5.431 48.879 5.431
860 4 2.7155 46.163 0
861 4 5.431 46.163 2.7155
862 4 2.7155 48.879 2.7155
863 4 0 46.163 2.7155
864 4 2.7155 46.163 5.431
865 4 1.3578 44.806 1.3578
866 4 4.0732 47.521 1.3578
867 4 4.0732 44.806 4.0732
868 4 1.3578 47.521 4.0732
869 4 0 48.879 10.862
870 4 5.431 48.879 10.862
871 4 5.431 46.163 8.1465
872 4 2.7155 48.879 8.1465
873 4 0 46.163 8.1465
874 4 2.7155 46.163 10.862
875 4 1.3578 44.806 6.7888
876 4 4.0732 47.521 6.7888
877 4 4.0732 44.806 9.5042
878 4 1.3578 47.521 9.5042
879 4 0 48.879 16.293
880 4 5.431 48.879 16.293
881 4 5.431 46.163 13.578
882 4 2.7155 48.879 13.578
883 4 0 46.163 13.578
884 4 2.7155 46.163 16.293
885 4 1.3578 44.806 12.22
886 4 4.0732 47.521 12.22
887 4 4.0732 44.806 14.935
888 4 1.3578 47.521 14.935
889 4 0 48.879 21.724
890 4 5.431 48.879 21.724
891 4 5.431 46.163 19.008
892 4 2.7155 48.879 19.008
893 4 0 46.163 19.008
894 4 2.7155 46.163 21.724
895 4 1.3578 44.806 17.651
896 4 4.0732 47.521 17.651
897 4 4.0732 44.806 20.366
898 4 1.3578 47.521 20.366
899 4 0 48.879 27.155
900 4 5.431 48.879 27.155
901 4 5.431 46.163 24.439
902 4 2.7155 48.879 24.439
903 4 0 46.163 24.439
904 4 2.7155 46.163 27.155
905 4 1.3578 44.806 23.082
906 4 4.0732 47.521 23.082
907 4 4.0732 44.806 25.797
908 4 1.3578 47.521 25.797
909 4 0 48.879 32.586
910 4 5.431 48.879 32.586
911 4 5.431 46.163 29.87
912 4 2.7155 48.879 29.87
913 4 0 46.163 29.87
914 4 2.7155 46.163 32.586
915 4 1.3578 44.806 28.513
916 4 4.0732 47.521 28.513
917 4 4.0732 44.806 31.228
918 4 1.3578 47.521 31.228
919 4 0 48.879 38.017
920 4 5.431 48.879 38.017
921 4 5.431 46.163 35.301
922 4 2.7155 48.879 35.301
923 4 0 46.163 35.301
924 4 2.7155 46.163 38.017
925 4 1.3578 44.806 33.944
926 4 4.0732 47.521 33.944
927 4 4.0732 44.806 36.659
928 4 1.3578 47.521 36.659
929 4 0 48.879 43.448
930 4 5.431 48.879 43.448
931 4 5.431 46.163 40.733
932 4 2.7155 48.879 40.733
933 4 0 46.163 40.733
934 4 2.7155 46.163 43.448
935 4 1.3578 44.806 39.375
936 4 4.0732 47.521 39.375
937 4 4.0732 44.806 42.09
938 4 1.3578 47.521 42.09
939 4 0 48.879 48.879
940 4 5.431 48.879 48.879
941 4 5.431 46.163 46.163
942 4 2.7155 48.879 46.163
943 4 0 46.163 46.163
944 4 2.7155 46.163 48.879
945 4 1.3578 44.806 44.806
946 4 4.0732 47.521 44.806
947 4 4.0732 44.806 47.521
948 4 1.3578 47.521 47.521
949 4 0 48.879 54.31
950 4 5.431 48.879 54.31
951 4 5.431 46.163 51.594
952 4 2.7155 48.879 51.594
953 4 0 46.163 51.594
954 4 2.7155 46.163 54.31
955 4 1.3578 44.806 50.237
956 4 4.0732 47.521 50.237
957 4 4.0732 44.806 52.952
958 4 1.3578 47.521 52.952
959 4 0 54.31 0
960 4 5.431 54.31 0
961 4 0 54.31 5.431
962 4 5.431 54.31 5.431
963 4 2.7155 51.594 0
964 4 5.431 51.594 2.7155
965 4 2.7155 54.31 2.7155
966 4 0 51.594 2.7155
967 4 2.7155 51.594 5.431
968 4 1.3578 50.237 1.3578
969 4 4.0732 52.952 1.3578
970 4 4.0732 50.237 4.0732
971 4 1.3578 52.952 4.0732
972 4 0 54.31 10.862
973 4 5.431 54.31 10.862
974 4 5.431 51.594 8.1465
975 4 2.7155 54.31 8.1465
976 4 0 51.594 8.1465
977 4 2.7155 51.594 10.862
978 4 1.3578 50.237 6.7888
979 4 4.0732 52.952 6.7888
980 4 4.0732 50.237 9.5042
981 4 1.3578 52.952 9.5042
982 4 0 54.31 16.293
983 4 5.431 54.31 16.293
984 4 5.431 51.594 13.578
985 4 2.7155 54.31 13.578
986 4 0 51.594 13.578
987 4 2.7155 51.594 16.293
988 4 1.3578 50.237 12.22
989 4 4.0732 52.952 12.22
990 4 4.0732 50.237 14.935
991 4 1.3578 52.952 14.935
992 4 0 54.31 21.724
993 4 5.431 54.31 21.724
994 4 5.431 51.594 19.008
995 4 2.7155 54.31 19.008
996 4 0 51.594 19.008
997 4 2.7155 51.594 21.724
998 4 1.3578 50.237 17.651
999 4 4.0732 52.952 17.651
1000 4 4.0732 50.237 20.366
1001 4 1.3578 52.952 20.366
1002 4 0 54.31 27.155
1003 4 5.431 54.31 27.155
1004 4 5.431 51.594 24.439
1005 4 2.7155 54.31 24.439
1006 4 0 51.594 24.439
1007 4 2.7155 51.594 27.155
1008 4 1.3578 50.237 23.082
1009 4 4.0732 52.952 23.082
1010 4 4.0732 50.237 25.797
1011 4 1.3578 52.952 25.797
1012 4 0 54.31 32.586
1013 4 5.431 54.31 32.586
1014 4 5.431 51.594 29.87
1015 4 2.7155 54.31 29.87
1016 4 0 51.594 29.87
1017 4 2.7155 51.594 32.586
1018 4 1.3578 50.237 28.513
1019 4 4.0732 52.952 28.513
1020 4 4.0732 50.237 31.228
1021 4 1.3578 52.952 31.228
1022 4 0 54.31 38.017
1023 4 5.431 54.31 38.017
1024 4 5.431 51.594 35.301
1025 4 2.7155 54.31 35.301
1026 4 0 51.594 35.301
1027 4 2.7155 51.594 38.017
1028 4 1.3578 50.237 33.944
1029 4 4.0732 52.952 33.944
1030 4 4.0732 50.237 36.659
1031 4 1.3578 52.952 36.659
1032 4 0 54.31 43.448
1033 4 5.431 54.31 43.448
1034 4 5.431 51.594 40.733
1035 4 2.7155 54.31 40.733
1036 4 0 51.594 40.733
1037 4 2.7155 51.594 43.448
1038 4 1.3578 50.237 39.375
1039 4 4.0732 52.952 39.375
1040 4 4.0732 50.237 42.09
1041 4 1.3578 52.952 42.09
1042 4 0 54.31 48.879
1043 4 5.431 54.31 48.879
1044 4 5.431 51.594 46.163
1045 4 2.7155 54.31 46.163
1046 4 0 51.594 46.163
1047 4 2.7155 51.594 48.879
1048 4 1.3578 50.237 44.806
1049 4 4.0732 52.952 44.806
1050 4 4.0732 50.237 47.521
1051 4 1.3578 52.952 47.521
1052 4 0 54.31 54.31
1053 4 5.431 54.31 54.31
1054 4 5.431 51.594 51.594
1055 4 2.7155 54.31 51.594
1056 4 0 51.594 51.594
1057 4 2.7155 51.594 54.31
1058 4 1.3578 50.237 50.237
1059 4 4.0732 52.952 50.237
1060 4 4.0732 50.237 52.952
1061 4 1.3578 52.952 52.952
1062 4 0 59.741 0
1063 4 5.431 59.741 0
1064 4 0 59.741 5.431
1065 4 5.431 59.741 5.431
1066 4 2.7155 57.026 0
1067 4 5.431 57.026 2.7155
1068 4 2.7155 59.741 2.7155
1069 4 0 57.026 2.7155
1070 4 2.7155 57.026 5.431
1071 4 1.3578 55.668 1.3578
1072 4 4.0732 58.383 1.3578
1073 4 4.0732 55.668 4.0732
1074 4 1.3578 58.383 4.0732
1075 4 0 59.741 10.862
1076 4 5.431 59.741 10.862
1077 4 5.431 57.026 8.1465
1078 4 2.7155 59.741 8.1465
1079 4 0 57.026 8.1465
1080 4 2.7155 57.026 10.862
1081 4 1.3578 55.668 6.7888
1082 4 4.0732 58.383 6.7888
1083 4 4.0732 55.668 9.5042
1084 4 1.3578 58.383 9.5042
1085 4 0 59.741 16.293
1086 4 5.431 59.741 16.293
1087 4 5.431 57.026 13.578
1088 4 2.7155 59.741 13.578
1089 4 0 57.026 13.578
1090 4 2.7155 57.026 16.293
1091 4 1.3578 55.668 12.22
1092 4 4.0732 58.383 12.22
1093 4 4.0732 55.668 14.935
1094 4 1.3578 58.383 14.935
1095 4 0 59.741 21.724
1096 4 5.431 59.741 21.724
1097 4 5.431 57.026 19.008
1098 4 2.7155 59.741 19.008
1099 4 0 57.026 19.008
1100 4 2.7155 57.026 21.724
1101 4 1.3578 55.668 17.651
1102 4 4.0732 58.383 17.651
1103 4 4.0732 55.668 20.366
1104 4 1.3578 58.383 20.366
1105 4 0 59.741 27.155
1106 4 5.431 59.741 27.155
1107 4 5.431 57.026 24.439
1108 4 2.7155 59.741 24.439
1109 4 0 57.026 24.439
1110 4 2.7155 57.026 27.155
1111 4 1.3578 55.668 23.082
1112 4 4.0732 58.383 23.082
1113 4 4.0732 55.668 25.797
1114 4 1.3578 58.383 25.797
1115 4 0 59.741 32.586
1116 4 5.431 59.741 32.586
1117 4 5.431 57.026 29.87
1118 4 2.7155 59.741 29.87
1119 4 0 57.026 29.87
1120 4 2.7155 57.026 32.586
1121 4 1.3578 55.668 28.513
1122 4 4.0732 58.383 28.513
1123 4 4.0732 55.668 31.228
1124 4 1.3578 58.383 31.228
1125 4 0 59.741 38.017
1126 4 5.431 59.741 38.017
1127 4 5.431 57.026 35.301
1128 4 2.7155 59.741 35.301
1129 4 0 57.026 35.301
1130 4 2.7155 57.026 38.017
1131 4 1.3578 55.668 33.944
1132 4 4.0732 58.383 33.944
1133 4 4.0732 55.668 36.659
1134 4 1.3578 58.383 36.659
1135 4 0 59.741 43.448
1136 4 5.431 59.741 43.448
1137 4 5.431 57.026 40.733
1138 4 2.7155 59.741 40.733
1139 4 0 57.026 40.733
1140 4 2.7155 57.026 43.448
1141 4 1.3578 55.668 39.375
1142 4 4.0732 58.383 39.375
1143 4 4.0732 55.668 42.09
1144 4 1.3578 58.383 42.09
1145 4 0 59.741 48.879
1146 4 5.431 59.741 48.879
1147 4 5.431 57.026 46.163
1148 4 2.7155 59.741 46.163
1149 4 0 57.026 46.163
1150 4 2.7155 57.026 48.879
1151 4 1.3578 55.668 44.806
1152 4 4.0732 58.383 44.806
1153 4 4.0732 55.668 47.521
1154 4 1.3578 58.383 47.521
1155 4 0 59.741 54.31
1156 4 5.431 59.741 54.31
1157 4 5.431 57.026 51.594
1158 4 2.7155 59.741 51.594
1159 4 0 57.026 51.594
1160 4 2.7155 57.026 54.31
1161 4 1.3578 55.668 50.237
1162 4 4.0732 58.383 50.237
1163 4 4.0732 55.668 52.952
1164 4 1.3578 58.383 52.952
1165 4 0 65.172 0
1166 4 5.431 65.172 0
1167 4 0 65.172 5.431
1168 4 5.431 65.172 5.431
1169 4 2.7155 62.456 0
1170 4 5.431 62.456 2.7155
1171 4 2.7155 65.172 2.7155
1172 4 0 62.456 2.7155
1173 4 2.7155 62.456 5.431
1174 4 1.3578 61.099 1.3578
1175 4 4.0732 63.814 1.3578
1176 4 4.0732 61.099 4.0732
1177 4 1.3578 63.814 4.0732
1178 4 0 65.172 10.862
1179 4 5.431 65.172 10.862
1180 4 5.431 62.456 8.1465
1181 4 2.7155 65.172 8.1465